
                                 *****************
                                 * O   R   C   A *
                                 *****************

                                            #,                                       
                                            ###                                      
                                            ####                                     
                                            #####                                    
                                            ######                                   
                                           ########,                                 
                                     ,,################,,,,,                         
                               ,,#################################,,                 
                          ,,##########################################,,             
                       ,#########################################, ''#####,          
                    ,#############################################,,   '####,        
                  ,##################################################,,,,####,       
                ,###########''''           ''''###############################       
              ,#####''   ,,,,##########,,,,          '''####'''          '####       
            ,##' ,,,,###########################,,,                        '##       
           ' ,,###''''                  '''############,,,                           
         ,,##''                                '''############,,,,        ,,,,,,###''
      ,#''                                            '''#######################'''  
     '                                                          ''''####''''         
             ,#######,   #######,   ,#######,      ##                                
            ,#'     '#,  ##    ##  ,#'     '#,    #''#        ,####,   ,####,        
            ##       ##  ##   ,#'  ##            #'  '#       #'       #'  '#        
            ##       ##  #######   ##           ,######,      #####,   #    #        
            '#,     ,#'  ##    ##  '#,     ,#' ,#      #,     #,   #   #,  ,#        
             '#######'   ##     ##  '#######'  #'      '#     '####' # '####'        



                #########################################################
                #                        -***-                          #
                #          Department of theory and spectroscopy        #
                #                                                       #
                #                      Frank Neese                      #
                #                                                       #
                #     Directorship, Architecture, Infrastructure        #
                #                    SHARK, DRIVERS                     #
                #        Core code/Algorithms in most modules           #
                #                                                       #
                #        Max Planck Institute fuer Kohlenforschung      #
                #                Kaiser Wilhelm Platz 1                 #
                #                 D-45470 Muelheim/Ruhr                 #
                #                      Germany                          #
                #                                                       #
                #                  All rights reserved                  #
                #                        -***-                          #
                #########################################################


                         Program Version 6.0.1  -  RELEASE   -


 With contributions from (in alphabetic order):
[Max-Planck-Institut fuer Kohlenforschung]                               
  Daniel Aravena         : Magnetic Suceptibility                        
  Michael Atanasov       : Ab Initio Ligand Field Theory (pilot matlab implementation)
  Alexander A. Auer      : GIAO ZORA, VPT2 properties, NMR spectrum      
  Ute Becker             : All parallelization in ORCA, NUMFREQ, NUMCALC 
  Giovanni Bistoni       : ED, misc. LED, open-shell LED, HFLD           
  Martin Brehm           : Molecular dynamics                            
  Dmytro Bykov           : pre 5.0 version of the SCF Hessian            
  Marcos Casanova-Páez   : Triplet and SCS-CIS(D). UHF-(DLPNO)-IP/EA/STEOM-CCSD. UHF-CVS-IP/STEOM-CCSD   
  Vijay G. Chilkuri      : MRCI spin determinant printing, contributions to CSF-ICE 
  Pauline Colinet        : FMM embedding                                 
  Dipayan Datta          : RHF DLPNO-CCSD density                        
  Achintya Kumar Dutta   : EOM-CC, STEOM-CC                              
  Nicolas Foglia         : Exact transition moments, OPA infrastructure, MCD improvements    
  Dmitry Ganyushin       : Spin-Orbit,Spin-Spin,Magnetic field MRCI      
  Miquel Garcia-Rates    : C-PCM and meta-GGA Hessian, CCSD/C-PCM, Gaussian charge scheme 
  Tiago L. C. Gouveia    : GS-ROHF, GS-ROCIS                             
  Yang Guo               : DLPNO-NEVPT2, F12-NEVPT2, CIM, IAO-localization        
  Andreas Hansen         : Spin unrestricted coupled pair/coupled cluster methods 
  Ingolf Harden          : AUTO-CI MPn and infrastructure                
  Benjamin Helmich-Paris : MC-RPA, TRAH-(SCF,CASSCF), AVAS, COSX integrals, SCF dyn. polar. 
  Lee Huntington         : MR-EOM, pCC                                   
  Robert Izsak           : Overlap fitted RIJCOSX, COSX-SCS-MP3, EOM     
  Riya Kayal             : Wick's Theorem for AUTO-CI, AUTO-CI UHF-CCSDT 
  Emily Kempfer          : AUTO-CI, RHF CISDT and CCSDT                  
  Christian Kollmar      : KDIIS, OOCD, Brueckner-CCSD(T), CCSD density, CASPT2, CASPT2-K, improved NEVPT2 
  Axel Koslowski         : Symmetry handling                             
  Simone Kossmann        : meta-GGA functionals, TD-DFT gradient, OOMP2, (MP2 Hessian; deprecated post 5.0) 
  Lucas Lang             : DCDCAS                                        
  Marvin Lechner         : AUTO-CI (C++ implementation), FIC-MRCC        
  Spencer Leger          : CASSCF response                               
  Dagmar Lenk            : GEPOL surface, SMD, ORCA-2-JSON               
  Dimitrios Liakos       : Extrapolation schemes; Compound Job, initial MDCI parallelization 
  Dimitrios Manganas     : Further ROCIS development; embedding schemes. LFT, Crystal Embedding 
  Dimitrios Pantazis     : SARC Basis sets                               
  Anastasios Papadopoulos: AUTO-CI, single reference methods and gradients 
  Taras Petrenko         : pre 6.0 DFT Hessian and TD-DFT gradient, (ASA, deprecated), ECA, 1-Electron XAS/XES, NRVS 
  Peter Pinski           : DLPNO-MP2, DLPNO-MP2 Gradient                 
  Christoph Reimann      : Effective Core Potentials                     
  Marius Retegan         : Local ZFS, SOC                                
  Christoph Riplinger    : Optimizer, TS searches, QM/MM, DLPNO-CCSD(T), (RO)-DLPNO pert. Triples 
  Michael Roemelt        : Original ROCIS implementation                 
  Masaaki Saitow         : Open-shell DLPNO-CCSD energy and density      
  Barbara Sandhoefer     : DKH picture change effects                    
  Kantharuban Sivalingam : CASSCF convergence/infrastructure, NEVPT2 and variants, FIC-MRCI 
  Bernardo de Souza      : ESD, SOC TD-DFT                               
  Georgi L. Stoychev     : AutoAux, RI-MP2 NMR, DLPNO-MP2 response, X2C  
  Van Anh Tran           : RI-MP2 g-tensors                              
  Willem Van den Heuvel  : Paramagnetic NMR                              
  Zikuan Wang            : NOTCH, Electric field optimization            
  Frank Wennmohs         : Technical directorship and infrastructure     
  Hang Xu                : AUTO-CI-Response properties                   
                                                                         
[FACCTs GmbH]                                                            
  Markus Bursch, Miquel Garcia-Rates, Christoph Riplinger, Bernardo de Souza, Georgi L. Stoychev 
                                                                 
  APM, Basis sets (HGBS, AHGBS, def-TZVP (Ac-Lr), def2-XVPD (La-Lu)), CI-OPT, improved COSX, DLPNO-Multilevel,           
  DOCKER, DRACO, updates on ESD, GOAT, IRC, LR-CPCM, MBIS, meta-GGA TD-DFT gradient, ML-optimized integration grids, 
  MM, NACMEs, nearIR, NEB, NEB-TS, NL-DFT gradient (VV10), 2- and 3-layer-ONIOM, interface openCOSMO-RS, QMMM,   
  Crystal-QMMM, SF, symmetry and pop. for TD-DFT, r2SCAN hybrids, SOLVATOR                                   
                                                                         
[Other institutions]                                                     
  V. Asgeirsson          : NEB                                           
  Christoph Bannwarth    : sTDA-DFT, sTD-DFT, PBEh-3c, B97-3c, D3        
  Sebastian Ehlert       : rSCAN, r2SCAN, r2SCAN-3c, D4, dhf basis sets  
  Marvin Friede          : D4 for Fr, Ra, Ac-Lr                          
  Lars Goerigk           : TD-DFT with DH, B97 family of functionals     
  Stefan Grimme          : VdW corrections, initial TS optimization, DFT functionals, gCP, sTDA/sTD-DF 
  Waldemar Hujo          : DFT-NL                                        
  H. Jonsson             : NEB                                           
  Holger Kruse           : gCP                                           
  Marcel Mueller         : wB97X-3c, vDZP basis set                      
  Hagen Neugebauer       : wr2SCAN                                       
  Tobias Risthaus        : range-separated hybrid DFT                    
  Lukas Wittmann         : regularized MP2, r2SCAN double-hybrids, wr2SCAN        
                                                                         
We gratefully acknowledge several colleagues who have allowed us to      
interface, adapt or use parts of their codes:                            
  Ed Valeev, F. Pavosevic, A. Kumar             : LibInt (2-el integral package), F12 methods 
  Garnet Chan, S. Sharma, J. Yang, R. Olivares  : DMRG                   
  Ulf Ekstrom                                   : XCFun DFT Library      
  Mihaly Kallay                                 : mrcc  (arbitrary order and MRCC methods)
  Frank Weinhold                                : gennbo (NPA and NBO analysis)           
  Simon Mueller                                 : openCOSMO-RS                            
  Christopher J. Cramer and Donald G. Truhlar   : smd solvation model                     
  S Lehtola, MJT Oliveira, MAL Marques          : LibXC Library                           
  Liviu Ungur et al                             : ANISO software                          


 Your calculation uses the libint2 library for the computation of 2-el integrals
 For citations please refer to: http://libint.valeyev.net

 Your ORCA version has been built with support for libXC version: 6.2.2
 For citations please refer to: https://libxc.gitlab.io

 This ORCA versions uses:
   CBLAS   interface :  Fast vector & matrix operations
   LAPACKE interface :  Fast linear algebra routines
   SCALAPACK package :  Parallel linear algebra routines
   Shared memory     :  Shared parallel matrices


Warning: RI is on but no J-basis has been assigned. Assigning Def2/J (nothing to worry about!)
================================================================================

----- Orbital basis set information -----
Your calculation utilizes the basis: def2-TZVP
   F. Weigend and R. Ahlrichs, Phys. Chem. Chem. Phys. 7, 3297 (2005).

----- AuxJ basis set information -----
Your calculation utilizes the auxiliary basis: def2/J
   F. Weigend, Phys. Chem. Chem. Phys. 8, 1057 (2006).

================================================================================
                                        WARNINGS
                       Please study these warnings very carefully!
================================================================================

WARNING: Old DensityContainer found on disk!
         Will remove this file - 
         If you want to keep old densities, please start your calculation with a different basename. 

INFO   : Checking CIS options ...

WARNING: (CIS/TDDFT): Analytic excited state gradients requested
  ===> : turning on equilibrium dielectric conditions.

WARNING: Geometry Optimization
  ===> : Switching off AutoStart
         For restart on a previous wavefunction, please use MOREAD

WARNING: CIS/ROCIS methods need fully converged wavefunctions
  ===> : Setting SCFConvForced true
         You can overwrite this default with %scf ConvForced false 


================================================================================
                                       INPUT FILE
================================================================================
NAME = /Users/huwsandaver/2.inp
|  1> ! B3LYP def2-TZVP TightSCF Opt CPCM(water)
|  2> 
|  3> %tddft
|  4>    nroots 10
|  5>    maxdim 50
|  6> end
|  7> 
|  8> * xyz 0 1
|  9> O          6.75920        2.05802        1.36918
| 10> C          6.11075        1.83258        0.35664
| 11> O          6.71832        1.50985       -0.79749
| 12> C          4.62673        2.05070        0.31542
| 13> C          4.06260        2.52887        1.51150
| 14> C          2.71221        2.88135        1.59866
| 15> C          1.89552        2.79436        0.48734
| 16> C          2.42439        2.31003       -0.69823
| 17> C          3.76895        1.89429       -0.78222
| 18> S          4.15211        1.04725       -2.29114
| 19> C          3.06441       -0.34799       -2.03438
| 20> C          1.82795       -0.43365       -2.65860
| 21> C          1.05950       -1.64061       -2.63260
| 22> N         -0.25432       -1.60352       -3.16107
| 23> C         -0.78211       -0.54676       -3.96349
| 24> C         -0.05010       -0.09122       -5.07433
| 25> C         -0.36650        1.09695       -5.73680
| 26> C         -1.47031        1.85020       -5.34045
| 27> C         -1.79892        3.13563       -6.04647
| 28> C         -2.26103        1.37058       -4.28632
| 29> C         -1.91492        0.19134       -3.59323
| 30> C          1.73823       -2.79125       -2.20402
| 31> C          3.05263       -2.65057       -1.81197
| 32> C          3.47414       -1.46311       -1.35440
| 33> N          4.58357       -1.54361       -0.51969
| 34> C          5.67031       -1.94273       -1.23510
| 35> O          6.75224       -1.43200       -1.02963
| 36> C          5.45494       -3.09795       -2.23063
| 37> C          4.16136       -3.59900       -2.35863
| 38> C          3.47339       -4.81108       -2.99429
| 39> C          3.32815       -5.11960       -4.34970
| 40> C          2.34280       -6.06646       -4.76202
| 41> C          1.61426       -6.81907       -3.83135
| 42> C          1.72037       -6.49112       -2.49672
| 43> C          2.36648       -5.28547       -2.22268
| 44> C          1.29890       -4.17967       -2.02171
| 45> O          0.14552       -4.40302       -1.70061
| 46> C          6.88405       -3.41407       -2.73070
| 47> O          7.58402       -4.29406       -2.25124
| 48> O          7.33750       -2.38308       -3.53701
| 49> C          8.72811       -2.34538       -3.99654
| 50> C          9.61949       -1.23159       -3.42018
| 51> H          6.15410        1.01989       -1.42591
| 52> H          4.68593        2.63902        2.39670
| 53> H          2.30841        3.24402        2.53925
| 54> H          0.84874        3.08035        0.53131
| 55> H          1.76125        2.22716       -1.55902
| 56> H          1.43558        0.45718       -3.13261
| 57> H         -0.93061       -2.04182       -2.53391
| 58> H          0.83319       -0.64218       -5.39319
| 59> H          0.27535        1.43797       -6.54604
| 60> H         -0.99804        3.42627       -6.73713
| 61> H         -1.91564        3.95372       -5.32802
| 62> H         -2.71922        3.02812       -6.62813
| 63> H         -3.14252        1.93357       -3.97854
| 64> H         -2.52483       -0.10933       -2.74575
| 65> H          4.41670       -2.29683        0.15353
| 66> H          3.82553       -4.54005       -5.12241
| 67> H          2.08595       -6.18102       -5.81540
| 68> H          0.86769       -7.55082       -4.13923
| 69> H          1.04410       -6.93315       -1.76681
| 70> H          8.67490       -2.15989       -5.07606
| 71> H          9.22119       -3.31119       -3.85780
| 72> H          9.18085       -0.23432       -3.53300
| 73> H         10.58688       -1.21627       -3.94796
| 74> H          9.84105       -1.38044       -2.35904
| 75> **                         ****END OF INPUT****
================================================================================

                       *****************************
                       * Geometry Optimization Run *
                       *****************************

Geometry optimization settings:
Update method            Update   .... BFGS
Choice of coordinates    CoordSys .... (2022) Redundant Internals
Initial Hessian          InHess   .... Almloef's Model
Max. no of cycles        MaxIter  .... 198

Convergence Tolerances:
Energy Change            TolE     ....  5.0000e-06 Eh
Max. Gradient            TolMAXG  ....  3.0000e-04 Eh/bohr
RMS Gradient             TolRMSG  ....  1.0000e-04 Eh/bohr
Max. Displacement        TolMAXD  ....  4.0000e-03 bohr
RMS Displacement         TolRMSD  ....  2.0000e-03 bohr
Strict Convergence                .... False

------------------------------------------------------------------------------
                        ORCA OPTIMIZATION COORDINATE SETUP
------------------------------------------------------------------------------

The optimization will be done in redundant internal coordinates (2022)
Making redundant internal coordinates   ...  (2022 redundants) done
Evaluating the initial hessian          ...  (Almloef) done
Evaluating the coordinates              ...  done
Calculating the B-matrix                .... done
Calculating the G-matrix                .... done
Diagonalizing the G-matrix              .... done
Small eigenvalue found = 1.665e-03
Small eigenvalue found = 2.883e-03
Small eigenvalue found = 4.065e-03
Small eigenvalue found = 5.461e-03
Small eigenvalue found = 7.520e-03
Small eigenvalue found = 1.123e-02
Small eigenvalue found = 1.418e-02
Small eigenvalue found = 1.861e-02
Small eigenvalue found = 2.268e-02
Small eigenvalue found = 2.555e-02
Small eigenvalue found = 2.977e-02
The first mode is                       ....  165
The number of degrees of freedom        ....  192

    -----------------------------------------------------------------
                    Redundant Internal Coordinates


    -----------------------------------------------------------------
         Definition                    Initial Value    Approx d2E/dq
    -----------------------------------------------------------------
      1. B(C   1,O   0)                  1.2233         1.032237   
      2. B(O   2,C   1)                  1.3436         0.663550   
      3. B(C   3,C   1)                  1.5005         0.416289   
      4. B(C   4,C   3)                  1.4062         0.588622   
      5. B(C   5,C   4)                  1.3984         0.605914   
      6. B(C   6,C   5)                  1.3819         0.643724   
      7. B(C   7,C   6)                  1.3856         0.635005   
      8. B(C   8,C   7)                  1.4099         0.580813   
      9. B(C   8,C   3)                  1.4018         0.598274   
     10. B(S   9,C   8)                  1.7723         0.413556   
     11. B(C  10,S   9)                  1.7877         0.390906   
     12. B(C  11,C  10)                  1.3877         0.630006   
     13. B(C  12,C  11)                  1.4311         0.537309   
     14. B(N  13,C  12)                  1.4166         0.507485   
     15. B(C  14,N  13)                  1.4280         0.486687   
     16. B(C  15,C  14)                  1.4062         0.588758   
     17. B(C  16,C  15)                  1.3967         0.609644   
     18. B(C  17,C  16)                  1.3939         0.615975   
     19. B(C  18,C  17)                  1.5029         0.412645   
     20. B(C  19,C  17)                  1.4023         0.597179   
     21. B(C  20,C  19)                  1.4109         0.578520   
     22. B(C  20,C  14)                  1.4018         0.598213   
     23. B(C  21,C  12)                  1.4030         0.595723   
     24. B(C  22,C  21)                  1.3788         0.650995   
     25. B(C  23,C  22)                  1.3406         0.749232   
     26. B(C  23,C  10)                  1.3688         0.675283   
     27. B(N  24,C  23)                  1.3907         0.558153   
     28. B(C  25,N  24)                  1.3609         0.622681   
     29. B(O  26,C  25)                  1.2139         1.068508   
     30. B(C  27,C  25)                  1.5401         0.359929   
     31. B(C  28,C  22)                  1.5581         0.336949   
     32. B(C  28,C  27)                  1.3931         0.617675   
     33. B(C  29,C  28)                  1.5318         0.371071   
     34. B(C  30,C  29)                  1.3976         0.607490   
     35. B(C  31,C  30)                  1.4274         0.544593   
     36. B(C  32,C  31)                  1.4012         0.599629   
     37. B(C  33,C  32)                  1.3784         0.651944   
     38. B(C  34,C  33)                  1.3950         0.613326   
     39. B(C  34,C  29)                  1.4303         0.538874   
     40. B(C  35,C  34)                  1.5501         0.346943   
     41. B(C  35,C  21)                  1.4676         0.469758   
     42. B(O  36,C  35)                  1.2179         1.053060   
     43. B(C  37,C  27)                  1.5467         0.351313   
     44. B(O  38,C  37)                  1.2224         1.035849   
     45. B(O  39,C  37)                  1.3852         0.569617   
     46. B(C  40,O  39)                  1.4651         0.424747   
     47. B(C  41,C  40)                  1.5386         0.361962   
     48. B(H  42,O   2)                  0.9764         0.489592   
     49. B(H  42,S   9)                  2.1811         0.017634   
     50. B(H  43,C   4)                  1.0882         0.362444   
     51. B(H  44,C   5)                  1.0860         0.365494   
     52. B(H  45,C   6)                  1.0860         0.365384   
     53. B(H  46,C   7)                  1.0898         0.360415   
     54. B(H  46,C  17)                  4.9884         0.000000   
     55. B(H  47,C  11)                  1.0827         0.369901   
     56. B(H  48,N  13)                  1.0212         0.415299   
     57. B(H  49,C  15)                  1.0888         0.361725   
     58. B(H  50,C  16)                  1.0877         0.363128   
     59. B(H  51,C  18)                  1.0968         0.351262   
     60. B(H  52,C  18)                  1.0950         0.353522   
     61. B(H  53,C  18)                  1.0940         0.354845   
     62. B(H  54,C  19)                  1.0903         0.359730   
     63. B(H  55,C  20)                  1.0866         0.364678   
     64. B(H  56,N  24)                  1.0239         0.411138   
     65. B(H  57,C  30)                  1.0864         0.364844   
     66. B(H  58,C  31)                  1.0903         0.359733   
     67. B(H  59,C  32)                  1.0898         0.360395   
     68. B(H  60,C  33)                  1.0888         0.361682   
     69. B(H  61,C  40)                  1.0966         0.351433   
     70. B(H  62,C  40)                  1.0932         0.355844   
     71. B(H  63,H  42)                  3.8954         0.000002   
     72. B(H  63,C  41)                  1.0953         0.353157   
     73. B(H  64,C  41)                  1.1021         0.344441   
     74. B(H  65,C  41)                  1.0942         0.354593   
     75. A(O   0,C   1,O   2)          121.0331         0.475818   
     76. A(O   2,C   1,C   3)          117.2925         0.406564   
     77. A(O   0,C   1,C   3)          121.3446         0.439967   
     78. A(C   1,O   2,H  42)          114.3356         0.370607   
     79. A(C   1,C   3,C   4)          115.0123         0.400632   
     80. A(C   1,C   3,C   8)          127.6233         0.401781   
     81. A(C   4,C   3,C   8)          117.2880         0.427291   
     82. A(C   3,C   4,C   5)          121.7444         0.428264   
     83. A(C   5,C   4,H  43)          118.4850         0.351926   
     84. A(C   3,C   4,H  43)          119.7688         0.350208   
     85. A(C   4,C   5,H  44)          119.8185         0.352425   
     86. A(C   6,C   5,H  44)          119.8564         0.356059   
     87. A(C   4,C   5,C   6)          120.3138         0.435206   
     88. A(C   5,C   6,C   7)          118.9824         0.438900   
     89. A(C   7,C   6,H  45)          119.6425         0.355217   
     90. A(C   5,C   6,H  45)          121.3659         0.356040   
     91. A(C   6,C   7,C   8)          121.2022         0.430849   
     92. A(C   8,C   7,H  46)          120.7204         0.349089   
     93. A(C   6,C   7,H  46)          118.0457         0.354394   
     94. A(C   3,C   8,S   9)          125.9927         0.423241   
     95. A(C   3,C   8,C   7)          120.2660         0.426270   
     96. A(C   7,C   8,S   9)          113.4423         0.421007   
     97. A(C   8,S   9,C  10)           96.8454         0.413857   
     98. A(S   9,C  10,C  11)          121.7149         0.422889   
     99. A(C  11,C  10,C  23)          116.0946         0.442079   
    100. A(S   9,C  10,C  23)          121.6710         0.428176   
    101. A(C  12,C  11,H  47)          120.4839         0.346053   
    102. A(C  10,C  11,H  47)          117.9720         0.355482   
    103. A(C  10,C  11,C  12)          121.4886         0.424278   
    104. A(N  13,C  12,C  21)          125.7402         0.413118   
    105. A(C  11,C  12,C  21)          115.9433         0.420059   
    106. A(C  11,C  12,N  13)          117.9795         0.405635   
    107. A(C  14,N  13,H  48)          114.7058         0.341928   
    108. A(C  12,N  13,H  48)          111.9540         0.344335   
    109. A(C  12,N  13,C  14)          124.8747         0.396075   
    110. A(N  13,C  14,C  15)          119.4219         0.409209   
    111. A(N  13,C  14,C  20)          122.6766         0.410366   
    112. A(C  15,C  14,C  20)          117.3063         0.427301   
    113. A(C  16,C  15,H  49)          118.3830         0.352173   
    114. A(C  14,C  15,H  49)          119.3235         0.350104   
    115. A(C  14,C  15,C  16)          122.1653         0.428754   
    116. A(C  15,C  16,H  50)          119.0726         0.352404   
    117. A(C  17,C  16,H  50)          120.6251         0.353020   
    118. A(C  15,C  16,C  17)          120.2813         0.432247   
    119. A(C  18,C  17,C  19)          121.4911         0.401030   
    120. A(C  16,C  17,C  19)          118.3888         0.430645   
    121. A(C  16,C  17,C  18)          120.1170         0.403226   
    122. A(H  51,C  18,H  52)          107.0390         0.288872   
    123. A(C  17,C  18,H  51)          111.2729         0.328327   
    124. A(H  52,C  18,H  53)          109.4262         0.289331   
    125. A(H  51,C  18,H  53)          107.7887         0.289041   
    126. A(C  17,C  18,H  53)          110.4656         0.328877   
    127. A(C  17,C  18,H  52)          110.7368         0.328675   
    128. A(C  17,C  19,C  20)          121.1174         0.425829   
    129. A(C  20,C  19,H  54)          119.4215         0.348744   
    130. A(C  17,C  19,H  54)          119.4381         0.350617   
    131. A(C  14,C  20,C  19)          120.5667         0.425961   
    132. A(C  19,C  20,H  55)          118.4712         0.349549   
    133. A(C  14,C  20,H  55)          120.9245         0.351530   
    134. A(C  12,C  21,C  22)          117.6687         0.434757   
    135. A(C  22,C  21,C  35)          110.2771         0.416657   
    136. A(C  12,C  21,C  35)          131.9904         0.410143   
    137. A(C  23,C  22,C  28)          115.7983         0.402742   
    138. A(C  21,C  22,C  28)          121.0966         0.392918   
    139. A(C  21,C  22,C  23)          119.1546         0.453173   
    140. A(C  22,C  23,N  24)          113.8553         0.437815   
    141. A(C  10,C  23,N  24)          125.7391         0.429706   
    142. A(C  10,C  23,C  22)          117.2538         0.456205   
    143. A(C  25,N  24,H  56)          105.0719         0.355826   
    144. A(C  23,N  24,H  56)          107.8907         0.349300   
    145. A(C  23,N  24,C  25)          109.7846         0.420757   
    146. A(O  26,C  25,C  27)          123.3407         0.431264   
    147. A(N  24,C  25,C  27)          116.6223         0.391889   
    148. A(N  24,C  25,O  26)          119.9561         0.473284   
    149. A(C  25,C  27,C  37)          103.4785         0.357294   
    150. A(C  25,C  27,C  28)          117.3234         0.393844   
    151. A(C  28,C  27,C  37)          139.0016         0.392177   
    152. A(C  27,C  28,C  29)          137.7092         0.395955   
    153. A(C  22,C  28,C  29)          107.9180         0.356611   
    154. A(C  22,C  28,C  27)          114.1788         0.389326   
    155. A(C  30,C  29,C  34)          111.6874         0.421747   
    156. A(C  28,C  29,C  30)          128.5915         0.394802   
    157. A(C  28,C  29,C  34)          112.7154         0.386618   
    158. A(C  31,C  30,H  57)          117.6739         0.346036   
    159. A(C  29,C  30,H  57)          121.6287         0.352474   
    160. A(C  29,C  30,C  31)          119.8873         0.422543   
    161. A(C  30,C  31,H  58)          120.7579         0.345216   
    162. A(C  32,C  31,H  58)          117.5675         0.350860   
    163. A(C  30,C  31,C  32)          121.5578         0.421561   
    164. A(C  33,C  32,H  59)          119.0800         0.355976   
    165. A(C  31,C  32,H  59)          121.9520         0.350969   
    166. A(C  31,C  32,C  33)          118.3777         0.435383   
    167. A(C  32,C  33,C  34)          115.5607         0.437158   
    168. A(C  34,C  33,H  60)          120.4535         0.352525   
    169. A(C  32,C  33,H  60)          120.3099         0.356192   
    170. A(C  33,C  34,C  35)          108.8450         0.390836   
    171. A(C  29,C  34,C  35)          111.4898         0.382123   
    172. A(C  29,C  34,C  33)          122.6231         0.422467   
    173. A(C  34,C  35,O  36)          123.7505         0.427312   
    174. A(C  21,C  35,O  36)          119.3228         0.451333   
    175. A(C  21,C  35,C  34)          116.9100         0.373156   
    176. A(O  38,C  37,O  39)          125.2179         0.462978   
    177. A(C  27,C  37,O  39)          109.7883         0.384220   
    178. A(C  27,C  37,O  38)          123.3261         0.427009   
    179. A(C  37,O  39,C  40)          120.8280         0.394644   
    180. A(H  61,C  40,H  62)          107.2320         0.289190   
    181. A(C  41,C  40,H  62)          109.3102         0.322015   
    182. A(O  39,C  40,H  62)          111.4427         0.328618   
    183. A(C  41,C  40,H  61)          105.9276         0.321358   
    184. A(O  39,C  40,H  61)          105.4896         0.327942   
    185. A(O  39,C  40,C  41)          116.8103         0.367121   
    186. A(H  64,C  41,H  65)          106.7725         0.288123   
    187. A(H  63,C  41,H  65)          107.7488         0.289252   
    188. A(C  40,C  41,H  65)          112.4649         0.321829   
    189. A(H  63,C  41,H  64)          106.8304         0.287940   
    190. A(C  40,C  41,H  64)          109.8284         0.320304   
    191. A(C  40,C  41,H  63)          112.8619         0.321616   
    192. D(H  42,O   2,C   1,C   3)    -29.4341         0.032653   
    193. D(H  42,O   2,C   1,O   0)    157.0741         0.032653   
    194. D(C   8,C   3,C   1,O   2)      3.4271         0.011869   
    195. D(C   4,C   3,C   1,O   2)   -173.2819         0.011869   
    196. D(C   4,C   3,C   1,O   0)      0.1883         0.011869   
    197. D(C   8,C   3,C   1,O   0)    176.8974         0.011869   
    198. D(C   5,C   4,C   3,C   1)    174.8578         0.023838   
    199. D(H  43,C   4,C   3,C   8)    178.2888         0.023838   
    200. D(C   5,C   4,C   3,C   8)     -2.2096         0.023838   
    201. D(H  43,C   4,C   3,C   1)     -4.6439         0.023838   
    202. D(C   6,C   5,C   4,H  43)    178.0683         0.025336   
    203. D(H  44,C   5,C   4,H  43)     -0.7027         0.025336   
    204. D(C   6,C   5,C   4,C   3)     -1.4396         0.025336   
    205. D(H  44,C   5,C   4,C   3)    179.7894         0.025336   
    206. D(C   7,C   6,C   5,C   4)      2.1996         0.028813   
    207. D(C   7,C   6,C   5,H  44)   -179.0298         0.028813   
    208. D(H  45,C   6,C   5,H  44)     -0.1323         0.028813   
    209. D(H  45,C   6,C   5,C   4)   -178.9029         0.028813   
    210. D(H  46,C   7,C   6,H  45)     -0.2472         0.027987   
    211. D(C   8,C   7,C   6,H  45)   -178.2143         0.027987   
    212. D(H  46,C   7,C   6,C   5)    178.6697         0.027987   
    213. D(C   8,C   7,C   6,C   5)      0.7025         0.027987   
    214. D(S   9,C   8,C   7,H  46)     -8.2707         0.023180   
    215. D(C   3,C   8,C   7,H  46)    177.6410         0.023180   
    216. D(S   9,C   8,C   7,C   6)    169.6423         0.023180   
    217. D(C   3,C   8,C   7,C   6)     -4.4460         0.023180   
    218. D(S   9,C   8,C   3,C   1)     15.1172         0.024667   
    219. D(S   9,C   8,C   3,C   4)   -168.2387         0.024667   
    220. D(C   7,C   8,C   3,C   4)      5.0544         0.024667   
    221. D(C   7,C   8,C   3,C   1)   -171.5898         0.024667   
    222. D(C  10,S   9,C   8,C   3)    110.1624         0.004265   
    223. D(C  10,S   9,C   8,C   7)    -63.5254         0.004265   
    224. D(C  23,C  10,S   9,C   8)    -87.8667         0.003960   
    225. D(C  11,C  10,S   9,C   8)    100.7251         0.003960   
    226. D(H  47,C  11,C  10,C  23)    174.8328         0.027520   
    227. D(H  47,C  11,C  10,S   9)    -13.3062         0.027520   
    228. D(C  12,C  11,C  10,C  23)     -2.4682         0.027520   
    229. D(C  12,C  11,C  10,S   9)    169.3927         0.027520   
    230. D(C  21,C  12,C  11,H  47)    169.4958         0.019721   
    231. D(C  21,C  12,C  11,C  10)    -13.2702         0.019721   
    232. D(N  13,C  12,C  11,H  47)     -4.2252         0.019721   
    233. D(N  13,C  12,C  11,C  10)    173.0088         0.019721   
    234. D(H  48,N  13,C  12,C  21)     54.4579         0.020381   
    235. D(H  48,N  13,C  12,C  11)   -132.5016         0.020381   
    236. D(C  14,N  13,C  12,C  21)   -159.4205         0.020381   
    237. D(C  14,N  13,C  12,C  11)     13.6200         0.020381   
    238. D(C  20,C  14,N  13,H  48)     24.2795         0.018697   
    239. D(C  20,C  14,N  13,C  12)   -121.0329         0.018697   
    240. D(C  15,C  14,N  13,H  48)   -164.8093         0.018697   
    241. D(C  15,C  14,N  13,C  12)     49.8783         0.018697   
    242. D(H  49,C  15,C  14,C  20)   -179.7380         0.023849   
    243. D(H  49,C  15,C  14,N  13)      8.8681         0.023849   
    244. D(C  16,C  15,C  14,C  20)      4.4463         0.023849   
    245. D(C  16,C  15,C  14,N  13)   -166.9477         0.023849   
    246. D(H  50,C  16,C  15,H  49)     -0.1428         0.025667   
    247. D(C  17,C  16,C  15,H  49)   -178.4855         0.025667   
    248. D(C  17,C  16,C  15,C  14)     -2.6320         0.025667   
    249. D(H  50,C  16,C  15,C  14)    175.7107         0.025667   
    250. D(C  19,C  17,C  16,H  50)   -179.6024         0.028506   
    251. D(C  19,C  17,C  16,C  15)     -1.2857         0.028506   
    252. D(C  18,C  17,C  16,H  50)      1.0347         0.028506   
    253. D(C  18,C  17,C  16,C  15)    179.3515         0.028506   
    254. D(H  51,C  18,C  17,C  16)     -8.9869         0.013484   
    255. D(H  53,C  18,C  17,C  16)    110.6983         0.013484   
    256. D(H  52,C  18,C  17,C  19)     52.7473         0.013484   
    257. D(H  52,C  18,C  17,C  16)   -127.9101         0.013484   
    258. D(H  51,C  18,C  17,C  19)    171.6704         0.013484   
    259. D(H  54,C  19,C  17,C  18)      0.8489         0.026691   
    260. D(H  54,C  19,C  17,C  16)   -178.5048         0.026691   
    261. D(C  20,C  19,C  17,C  18)   -177.3948         0.026691   
    262. D(C  20,C  19,C  17,C  16)      3.2516         0.026691   
    263. D(H  55,C  20,C  19,C  17)    176.4202         0.022989   
    264. D(C  14,C  20,C  19,H  54)   -179.6149         0.022989   
    265. D(C  14,C  20,C  19,C  17)     -1.3709         0.022989   
    266. D(H  55,C  20,C  14,C  15)    179.8392         0.024662   
    267. D(H  55,C  20,C  14,N  13)     -9.0688         0.024662   
    268. D(C  19,C  20,C  14,C  15)     -2.4244         0.024662   
    269. D(H  55,C  20,C  19,H  54)     -1.8238         0.022989   
    270. D(C  19,C  20,C  14,N  13)    168.6677         0.024662   
    271. D(C  35,C  21,C  12,N  13)     -8.0822         0.024446   
    272. D(C  35,C  21,C  12,C  11)    178.7520         0.024446   
    273. D(C  22,C  21,C  12,N  13)    175.1426         0.024446   
    274. D(C  22,C  21,C  12,C  11)      1.9767         0.024446   
    275. D(C  28,C  22,C  21,C  35)     51.6609         0.029514   
    276. D(C  28,C  22,C  21,C  12)   -130.8938         0.029514   
    277. D(C  23,C  22,C  21,C  35)   -151.6404         0.029514   
    278. D(C  23,C  22,C  21,C  12)     25.8049         0.029514   
    279. D(N  24,C  23,C  22,C  21)    155.7468         0.040025   
    280. D(C  10,C  23,C  22,C  28)    114.7667         0.040025   
    281. D(C  10,C  23,C  22,C  21)    -43.1335         0.040025   
    282. D(N  24,C  23,C  10,C  11)   -171.1512         0.031930   
    283. D(N  24,C  23,C  10,S   9)     16.9839         0.031930   
    284. D(C  22,C  23,C  10,C  11)     30.2324         0.031930   
    285. D(N  24,C  23,C  22,C  28)    -46.3529         0.040025   
    286. D(C  22,C  23,C  10,S   9)   -141.6325         0.031930   
    287. D(H  56,N  24,C  23,C  22)    -46.1752         0.024871   
    288. D(H  56,N  24,C  23,C  10)    154.5822         0.024871   
    289. D(C  25,N  24,C  23,C  22)     67.8104         0.024871   
    290. D(C  25,N  24,C  23,C  10)    -91.4322         0.024871   
    291. D(C  27,C  25,N  24,H  56)     72.0462         0.031418   
    292. D(C  27,C  25,N  24,C  23)    -43.7375         0.031418   
    293. D(O  26,C  25,N  24,H  56)   -104.7934         0.031418   
    294. D(O  26,C  25,N  24,C  23)    139.4228         0.031418   
    295. D(C  37,C  27,C  25,O  26)      3.5116         0.009049   
    296. D(C  37,C  27,C  25,N  24)   -173.2107         0.009049   
    297. D(C  28,C  27,C  25,O  26)    179.3796         0.009049   
    298. D(C  28,C  27,C  25,N  24)      2.6573         0.009049   
    299. D(C  29,C  28,C  27,C  37)      5.7564         0.026388   
    300. D(C  29,C  28,C  27,C  25)   -168.1122         0.026388   
    301. D(C  22,C  28,C  27,C  37)   -168.3725         0.026388   
    302. D(C  22,C  28,C  27,C  25)     17.7588         0.026388   
    303. D(C  29,C  28,C  22,C  23)   -172.7726         0.008042   
    304. D(C  29,C  28,C  22,C  21)    -15.3353         0.008042   
    305. D(C  27,C  28,C  22,C  23)      3.0791         0.008042   
    306. D(C  27,C  28,C  22,C  21)    160.5164         0.008042   
    307. D(C  34,C  29,C  28,C  27)    144.0836         0.009566   
    308. D(C  34,C  29,C  28,C  22)    -41.5446         0.009566   
    309. D(C  30,C  29,C  28,C  27)    -68.0690         0.009566   
    310. D(C  30,C  29,C  28,C  22)    106.3028         0.009566   
    311. D(H  57,C  30,C  29,C  34)    155.7083         0.025476   
    312. D(H  57,C  30,C  29,C  28)      7.5985         0.025476   
    313. D(C  31,C  30,C  29,C  34)    -13.7441         0.025476   
    314. D(C  31,C  30,C  29,C  28)   -161.8539         0.025476   
    315. D(H  58,C  31,C  30,H  57)     -1.4753         0.020276   
    316. D(H  58,C  31,C  30,C  29)    168.3881         0.020276   
    317. D(C  32,C  31,C  30,H  57)   -177.4512         0.020276   
    318. D(C  32,C  31,C  30,C  29)     -7.5878         0.020276   
    319. D(H  59,C  32,C  31,H  58)      4.5271         0.024785   
    320. D(H  59,C  32,C  31,C  30)   -179.3736         0.024785   
    321. D(C  33,C  32,C  31,H  58)   -166.5778         0.024785   
    322. D(C  33,C  32,C  31,C  30)      9.5214         0.024785   
    323. D(H  60,C  33,C  32,H  59)     -2.0500         0.029606   
    324. D(H  60,C  33,C  32,C  31)    169.3160         0.029606   
    325. D(C  34,C  33,C  32,H  59)   -160.5433         0.029606   
    326. D(C  34,C  33,C  32,C  31)     10.8227         0.029606   
    327. D(C  35,C  34,C  33,C  32)     96.9200         0.025996   
    328. D(C  29,C  34,C  33,H  60)    165.7678         0.025996   
    329. D(C  29,C  34,C  33,C  32)    -35.7721         0.025996   
    330. D(C  35,C  34,C  29,C  30)    -95.0596         0.019839   
    331. D(C  35,C  34,C  29,C  28)     58.3478         0.019839   
    332. D(C  33,C  34,C  29,C  30)     36.5593         0.019839   
    333. D(C  35,C  34,C  33,H  60)    -61.5401         0.025996   
    334. D(C  33,C  34,C  29,C  28)   -170.0332         0.019839   
    335. D(O  36,C  35,C  34,C  29)    161.2147         0.008470   
    336. D(C  21,C  35,C  34,C  33)   -158.5819         0.008470   
    337. D(C  21,C  35,C  34,C  29)    -20.2872         0.008470   
    338. D(O  36,C  35,C  21,C  22)    145.8477         0.015026   
    339. D(O  36,C  35,C  21,C  12)    -31.1078         0.015026   
    340. D(C  34,C  35,C  21,C  22)    -32.7200         0.015026   
    341. D(O  36,C  35,C  34,C  33)     22.9200         0.008470   
    342. D(C  34,C  35,C  21,C  12)    150.3245         0.015026   
    343. D(O  39,C  37,C  27,C  28)    115.1837         0.008662   
    344. D(O  39,C  37,C  27,C  25)    -70.4160         0.008662   
    345. D(O  38,C  37,C  27,C  28)    -78.8696         0.008662   
    346. D(O  38,C  37,C  27,C  25)     95.5306         0.008662   
    347. D(C  40,O  39,C  37,O  38)      6.1429         0.023550   
    348. D(C  40,O  39,C  37,C  27)    171.7630         0.023550   
    349. D(H  62,C  40,O  39,C  37)     15.2534         0.014214   
    350. D(H  61,C  40,O  39,C  37)    131.3006         0.014214   
    351. D(C  41,C  40,O  39,C  37)   -111.3695         0.014214   
    352. D(H  64,C  41,C  40,H  62)     60.6598         0.010503   
    353. D(H  64,C  41,C  40,H  61)    -54.5813         0.010503   
    354. D(H  64,C  41,C  40,O  39)   -171.6716         0.010503   
    355. D(H  63,C  41,C  40,H  62)    179.7419         0.010503   
    356. D(H  63,C  41,C  40,H  61)     64.5008         0.010503   
    357. D(H  63,C  41,C  40,O  39)    -52.5895         0.010503   
    -----------------------------------------------------------------

Number of atoms                         .... 66
Number of degrees of freedom            .... 357


         *************************************************************
         *                GEOMETRY OPTIMIZATION CYCLE   1            *
         *************************************************************
---------------------------------
CARTESIAN COORDINATES (ANGSTROEM)
---------------------------------
  O      6.759200    2.058020    1.369180
  C      6.110750    1.832580    0.356640
  O      6.718320    1.509850   -0.797490
  C      4.626730    2.050700    0.315420
  C      4.062600    2.528870    1.511500
  C      2.712210    2.881350    1.598660
  C      1.895520    2.794360    0.487340
  C      2.424390    2.310030   -0.698230
  C      3.768950    1.894290   -0.782220
  S      4.152110    1.047250   -2.291140
  C      3.064410   -0.347990   -2.034380
  C      1.827950   -0.433650   -2.658600
  C      1.059500   -1.640610   -2.632600
  N     -0.254320   -1.603520   -3.161070
  C     -0.782110   -0.546760   -3.963490
  C     -0.050100   -0.091220   -5.074330
  C     -0.366500    1.096950   -5.736800
  C     -1.470310    1.850200   -5.340450
  C     -1.798920    3.135630   -6.046470
  C     -2.261030    1.370580   -4.286320
  C     -1.914920    0.191340   -3.593230
  C      1.738230   -2.791250   -2.204020
  C      3.052630   -2.650570   -1.811970
  C      3.474140   -1.463110   -1.354400
  N      4.583570   -1.543610   -0.519690
  C      5.670310   -1.942730   -1.235100
  O      6.752240   -1.432000   -1.029630
  C      5.454940   -3.097950   -2.230630
  C      4.161360   -3.599000   -2.358630
  C      3.473390   -4.811080   -2.994290
  C      3.328150   -5.119600   -4.349700
  C      2.342800   -6.066460   -4.762020
  C      1.614260   -6.819070   -3.831350
  C      1.720370   -6.491120   -2.496720
  C      2.366480   -5.285470   -2.222680
  C      1.298900   -4.179670   -2.021710
  O      0.145520   -4.403020   -1.700610
  C      6.884050   -3.414070   -2.730700
  O      7.584020   -4.294060   -2.251240
  O      7.337500   -2.383080   -3.537010
  C      8.728110   -2.345380   -3.996540
  C      9.619490   -1.231590   -3.420180
  H      6.154100    1.019890   -1.425910
  H      4.685930    2.639020    2.396700
  H      2.308410    3.244020    2.539250
  H      0.848740    3.080350    0.531310
  H      1.761250    2.227160   -1.559020
  H      1.435580    0.457180   -3.132610
  H     -0.930610   -2.041820   -2.533910
  H      0.833190   -0.642180   -5.393190
  H      0.275350    1.437970   -6.546040
  H     -0.998040    3.426270   -6.737130
  H     -1.915640    3.953720   -5.328020
  H     -2.719220    3.028120   -6.628130
  H     -3.142520    1.933570   -3.978540
  H     -2.524830   -0.109330   -2.745750
  H      4.416700   -2.296830    0.153530
  H      3.825530   -4.540050   -5.122410
  H      2.085950   -6.181020   -5.815400
  H      0.867690   -7.550820   -4.139230
  H      1.044100   -6.933150   -1.766810
  H      8.674900   -2.159890   -5.076060
  H      9.221190   -3.311190   -3.857800
  H      9.180850   -0.234320   -3.533000
  H     10.586880   -1.216270   -3.947960
  H      9.841050   -1.380440   -2.359040

----------------------------
CARTESIAN COORDINATES (A.U.)
----------------------------
  NO LB      ZA    FRAG     MASS         X           Y           Z
   0 O     8.0000    0    15.999   12.773037    3.889094    2.587375
   1 C     6.0000    0    12.011   11.547644    3.463074    0.673952
   2 O     8.0000    0    15.999   12.695785    2.853203   -1.507038
   3 C     6.0000    0    12.011    8.743253    3.875261    0.596057
   4 C     6.0000    0    12.011    7.677201    4.778872    2.856321
   5 C     6.0000    0    12.011    5.125334    5.444962    3.021030
   6 C     6.0000    0    12.011    3.582014    5.280575    0.920939
   7 C     6.0000    0    12.011    4.581433    4.365324   -1.319463
   8 C     6.0000    0    12.011    7.122283    3.579689   -1.478182
   9 S    16.0000    0    32.060    7.846351    1.979016   -4.329627
  10 C     6.0000    0    12.011    5.790896   -0.657606   -3.844421
  11 C     6.0000    0    12.011    3.454325   -0.819480   -5.024026
  12 C     6.0000    0    12.011    2.002165   -3.100304   -4.974893
  13 N     7.0000    0    14.007   -0.480595   -3.030214   -5.973557
  14 C     6.0000    0    12.011   -1.477974   -1.033227   -7.489911
  15 C     6.0000    0    12.011   -0.094675   -0.172381   -9.589094
  16 C     6.0000    0    12.011   -0.692585    2.072935  -10.840981
  17 C     6.0000    0    12.011   -2.778483    3.496371  -10.091988
  18 C     6.0000    0    12.011   -3.399466    5.925482  -11.426172
  19 C     6.0000    0    12.011   -4.272727    2.590021   -8.099971
  20 C     6.0000    0    12.011   -3.618674    0.361580   -6.790221
  21 C     6.0000    0    12.011    3.284779   -5.274698   -4.164994
  22 C     6.0000    0    12.011    5.768635   -5.008851   -3.424127
  23 C     6.0000    0    12.011    6.565173   -2.764877   -2.559445
  24 N     7.0000    0    14.007    8.661692   -2.917000   -0.982072
  25 C     6.0000    0    12.011   10.715333   -3.671228   -2.334001
  26 O     8.0000    0    15.999   12.759884   -2.706088   -1.945719
  27 C     6.0000    0    12.011   10.308343   -5.854277   -4.215280
  28 C     6.0000    0    12.011    7.863831   -6.801124   -4.457165
  29 C     6.0000    0    12.011    6.563756   -9.091624   -5.658388
  30 C     6.0000    0    12.011    6.289292   -9.674642   -8.219742
  31 C     6.0000    0    12.011    4.427250  -11.463948   -8.998914
  32 C     6.0000    0    12.011    3.050509  -12.886175   -7.240202
  33 C     6.0000    0    12.011    3.251028  -12.266439   -4.718117
  34 C     6.0000    0    12.011    4.471999   -9.988091   -4.200256
  35 C     6.0000    0    12.011    2.454565   -7.898432   -3.820478
  36 O     8.0000    0    15.999    0.274993   -8.320502   -3.213687
  37 C     6.0000    0    12.011   13.008969   -6.451657   -5.160275
  38 O     8.0000    0    15.999   14.331721   -8.114597   -4.254227
  39 O     8.0000    0    15.999   13.865866   -4.503369   -6.683980
  40 C     6.0000    0    12.011   16.493738   -4.432126   -7.552366
  41 C     6.0000    0    12.011   18.178202   -2.327368   -6.463204
  42 H     1.0000    0     1.008   11.629564    1.927313   -2.694579
  43 H     1.0000    0     1.008    8.855124    4.987025    4.529107
  44 H     1.0000    0     1.008    4.362263    6.130309    4.798487
  45 H     1.0000    0     1.008    1.603886    5.821018    1.004030
  46 H     1.0000    0     1.008    3.328280    4.208722   -2.946121
  47 H     1.0000    0     1.008    2.712853    0.863945   -5.919775
  48 H     1.0000    0     1.008   -1.758598   -3.858481   -4.788396
  49 H     1.0000    0     1.008    1.574501   -1.213544  -10.191652
  50 H     1.0000    0     1.008    0.520336    2.717369  -12.370223
  51 H     1.0000    0     1.008   -1.886022    6.474712  -12.731331
  52 H     1.0000    0     1.008   -3.620035    7.471448  -10.068499
  53 H     1.0000    0     1.008   -5.138581    5.722318  -12.525350
  54 H     1.0000    0     1.008   -5.938502    3.653918   -7.518351
  55 H     1.0000    0     1.008   -4.771237   -0.206604   -5.188716
  56 H     1.0000    0     1.008    8.346353   -4.340380    0.290130
  57 H     1.0000    0     1.008    7.229204   -8.579451   -9.679952
  58 H     1.0000    0     1.008    3.941874  -11.680435  -10.989513
  59 H     1.0000    0     1.008    1.639696  -14.268982   -7.822011
  60 H     1.0000    0     1.008    1.973063  -13.101755   -3.338787
  61 H     1.0000    0     1.008   16.393185   -4.081601   -9.592363
  62 H     1.0000    0     1.008   17.425524   -6.257242   -7.290185
  63 H     1.0000    0     1.008   17.349292   -0.442801   -6.676402
  64 H     1.0000    0     1.008   20.006304   -2.298417   -7.460563
  65 H     1.0000    0     1.008   18.596889   -2.608654   -4.457940

--------------------------------
INTERNAL COORDINATES (ANGSTROEM)
--------------------------------
 O      0   0   0     0.000000000000     0.00000000     0.00000000
 C      1   0   0     1.223334724309     0.00000000     0.00000000
 O      2   1   0     1.343618999084   121.03312307     0.00000000
 C      2   1   3     1.500530167374   121.34461633   186.77323364
 C      4   2   1     1.406234892257   115.01229411     0.18833466
 C      5   4   2     1.398353377405   121.74441983   174.85780090
 C      6   5   4     1.381876245762   120.31375515   358.56044936
 C      7   6   5     1.385588413166   118.98241633     2.19962707
 C      4   2   1     1.401807471124   127.62333797   176.89737421
 S      9   4   2     1.772322745326   125.99268361    15.11716935
 C     10   9   4     1.787655348550    96.84537052   110.16236854
 C     11  10   9     1.387739736262   121.71489894   100.72508585
 C     12  11  10     1.431063885401   121.48860298   169.39274553
 N     13  12  11     1.416608344392   117.97948646   173.00875435
 C     14  13  12     1.427999243032   124.87473673    13.62004660
 C     15  14  13     1.406172406677   119.42187844    49.87825955
 C     16  15  14     1.396683002617   122.16526758   193.05234091
 C     17  16  15     1.393870654365   120.28133793   357.36795760
 C     18  17  16     1.502923503509   120.11697236   179.35149094
 C     18  17  16     1.402306499914   118.38880767   358.71431189
 C     15  14  13     1.401835430320   122.67661863   238.96709987
 C     13  12  11     1.402971004298   115.94329662   346.72979365
 C     22  13  12     1.378818851372   117.66872912     1.97672427
 C     23  22  13     1.340560418855   119.15455807    25.80490315
 N     24  23  22     1.390703404396   113.85527323   155.74683128
 C     25  24  23     1.360923241810   109.78462431    67.81041002
 O     26  25  24     1.213933926826   119.95609125   139.42284893
 C     26  25  24     1.540129042061   116.62233303   316.26249734
 C     28  26  25     1.393120353344   117.32336694     2.65728411
 C     29  28  26     1.531830370145   137.70920977   191.88775179
 C     30  29  28     1.397646420272   128.59151058   291.93102426
 C     31  30  29     1.427398425283   119.88734339   198.14606557
 C     32  31  30     1.401191989914   121.55784877   352.41222940
 C     33  32  31     1.378422203644   118.37772566     9.52141146
 C     34  33  32     1.395044076795   115.56069535    10.82270383
 C     22  13  12     1.467636835665   131.99044855   178.75197112
 O     36  22  13     1.217898130756   119.32278652   328.89219206
 C     28  26  25     1.546724685068   103.47853623   186.78929623
 O     38  28  26     1.222383856487   123.32612173    95.53064909
 O     38  28  26     1.385168978392   109.78826932   289.58396135
 C     40  38  28     1.465054703074   120.82796717   171.76295286
 C     41  40  38     1.538595891747   116.81030371   248.63049588
 H      3   2   1     0.976379386509   114.33555130   157.07407177
 H      5   4   2     1.088233592295   119.76876927   355.35611972
 H      6   5   4     1.085952815273   119.81850315   179.78943256
 H      7   6   5     1.086034994556   121.36593353   181.09710283
 H      8   7   6     1.089762139460   118.04574659   178.66967589
 H     12  11  10     1.082690069180   117.97195452   346.69379968
 H     14  13  12     1.021178103810   111.95396264   227.49840658
 H     16  15  14     1.088774469438   119.32353844     8.86808239
 H     17  16  15     1.087720295159   119.07258184   175.71068555
 H     19  18  17     1.096764158605   111.27291138   351.01305828
 H     19  18  17     1.095018360120   110.73681170   232.08994159
 H     19  18  17     1.094001300593   110.46561794   110.69832530
 H     20  18  17     1.090280188117   119.43805180   181.49521325
 H     21  15  14     1.086561092346   120.92454740   350.93122793
 H     25  24  23     1.023919495712   107.89074028   313.82479717
 H     31  30  29     1.086437209875   121.62869263     7.59846674
 H     32  31  30     1.090277643768   120.75787374   168.38813123
 H     33  32  31     1.089777464348   121.95195019   180.62635277
 H     34  33  32     1.088806797324   120.30990862   169.31596981
 H     41  40  38     1.096631786244   105.48958010   131.30057865
 H     41  40  38     1.093236310273   111.44267315    15.25343824
 H     42  41  40     1.095299436182   112.86194533   307.41048969
 H     42  41  40     1.102102464792   109.82835396   188.32843362
 H     42  41  40     1.094195254833   112.46494619    69.57449419

---------------------------
INTERNAL COORDINATES (A.U.)
---------------------------
 O      0   0   0     0.000000000000     0.00000000     0.00000000
 C      1   0   0     2.311767599060     0.00000000     0.00000000
 O      2   1   0     2.539071936603   121.03312307     0.00000000
 C      2   1   3     2.835591072024   121.34461633   186.77323364
 C      4   2   1     2.657398826329   115.01229411     0.18833466
 C      5   4   2     2.642504921739   121.74441983   174.85780090
 C      6   5   4     2.611367655461   120.31375515   358.56044936
 C      7   6   5     2.618382635218   118.98241633     2.19962707
 C      4   2   1     2.649032212910   127.62333797   176.89737421
 S      9   4   2     3.349204609586   125.99268361    15.11716935
 C     10   9   4     3.378179030599    96.84537052   110.16236854
 C     11  10   9     2.622448046695   121.71489894   100.72508585
 C     12  11  10     2.704318823554   121.48860298   169.39274553
 N     13  12  11     2.677001809928   117.97948646   173.00875435
 C     14  13  12     2.698527488777   124.87473673    13.62004660
 C     15  14  13     2.657280745697   119.42187844    49.87825955
 C     16  15  14     2.639348370849   122.16526758   193.05234091
 C     17  16  15     2.634033802860   120.28133793   357.36795760
 C     18  17  16     2.840113821866   120.11697236   179.35149094
 C     18  17  16     2.649975240654   118.38880767   358.71431189
 C     15  14  13     2.649085048132   122.67661863   238.96709987
 C     13  12  11     2.651230971955   115.94329662   346.72979365
 C     22  13  12     2.605590017382   117.66872912     1.97672427
 C     23  22  13     2.533292057610   119.15455807    25.80490315
 N     24  23  22     2.628048567821   113.85527323   155.74683128
 C     25  24  23     2.571772216310   109.78462431    67.81041002
 O     26  25  24     2.294002666377   119.95609125   139.42284893
 C     26  25  24     2.910422100394   116.62233303   316.26249734
 C     28  26  25     2.632615939411   117.32336694     2.65728411
 C     29  28  26     2.894739883198   137.70920977   191.88775179
 C     30  29  28     2.641168966370   128.59151058   291.93102426
 C     31  30  29     2.697392107775   119.88734339   198.14606557
 C     32  31  30     2.647869121982   121.55784877   352.41222940
 C     33  32  31     2.604840461804   118.37772566     9.52141146
 C     34  33  32     2.636251249891   115.56069535    10.82270383
 C     22  13  12     2.773431683461   131.99044855   178.75197112
 O     36  22  13     2.301493926144   119.32278652   328.89219206
 C     28  26  25     2.922886059355   103.47853623   186.78929623
 O     38  28  26     2.309970719287   123.32612173    95.53064909
 O     38  28  26     2.617590018365   109.78826932   289.58396135
 C     40  38  28     2.768552160024   120.82796717   171.76295286
 C     41  40  38     2.907524866178   116.81030371   248.63049588
 H      3   2   1     1.845089643308   114.33555130   157.07407177
 H      5   4   2     2.056463459171   119.76876927   355.35611972
 H      6   5   4     2.052153415227   119.81850315   179.78943256
 H      7   6   5     2.052308711565   121.36593353   181.09710283
 H      8   7   6     2.059351994695   118.04574659   178.66967589
 H     12  11  10     2.045987718666   117.97195452   346.69379968
 H     14  13  12     1.929746950157   111.95396264   227.49840658
 H     16  15  14     2.057485568843   119.32353844     8.86808239
 H     17  16  15     2.055493468158   119.07258184   175.71068555
 H     19  18  17     2.072583893264   111.27291138   351.01305828
 H     19  18  17     2.069284812242   110.73681170   232.08994159
 H     19  18  17     2.067362848275   110.46561794   110.69832530
 H     20  18  17     2.060330964781   119.43805180   181.49521325
 H     21  15  14     2.053302892308   120.92454740   350.93122793
 H     25  24  23     1.934927430079   107.89074028   313.82479717
 H     31  30  29     2.053068788364   121.62869263     7.59846674
 H     32  31  30     2.060326156658   120.75787374   168.38813123
 H     33  32  31     2.059380954536   121.95195019   180.62635277
 H     34  33  32     2.057546659695   120.30990862   169.31596981
 H     41  40  38     2.072333745753   105.48958010   131.30057865
 H     41  40  38     2.065917226075   111.44267315    15.25343824
 H     42  41  40     2.069815969022   112.86194533   307.41048969
 H     42  41  40     2.082671829976   109.82835396   188.32843362
 H     42  41  40     2.067729368671   112.46494619    69.57449419

---------------------
BASIS SET INFORMATION
---------------------
There are 5 groups of distinct atoms

 Group   1 Type O   : 11s6p2d1f contracted to 5s3p2d1f pattern {62111/411/11/1}
 Group   2 Type C   : 11s6p2d1f contracted to 5s3p2d1f pattern {62111/411/11/1}
 Group   3 Type S   : 14s9p3d1f contracted to 5s5p2d1f pattern {73211/51111/21/1}
 Group   4 Type N   : 11s6p2d1f contracted to 5s3p2d1f pattern {62111/411/11/1}
 Group   5 Type H   : 5s1p contracted to 3s1p pattern {311/1}

Atom   0O    basis set group =>   1
Atom   1C    basis set group =>   2
Atom   2O    basis set group =>   1
Atom   3C    basis set group =>   2
Atom   4C    basis set group =>   2
Atom   5C    basis set group =>   2
Atom   6C    basis set group =>   2
Atom   7C    basis set group =>   2
Atom   8C    basis set group =>   2
Atom   9S    basis set group =>   3
Atom  10C    basis set group =>   2
Atom  11C    basis set group =>   2
Atom  12C    basis set group =>   2
Atom  13N    basis set group =>   4
Atom  14C    basis set group =>   2
Atom  15C    basis set group =>   2
Atom  16C    basis set group =>   2
Atom  17C    basis set group =>   2
Atom  18C    basis set group =>   2
Atom  19C    basis set group =>   2
Atom  20C    basis set group =>   2
Atom  21C    basis set group =>   2
Atom  22C    basis set group =>   2
Atom  23C    basis set group =>   2
Atom  24N    basis set group =>   4
Atom  25C    basis set group =>   2
Atom  26O    basis set group =>   1
Atom  27C    basis set group =>   2
Atom  28C    basis set group =>   2
Atom  29C    basis set group =>   2
Atom  30C    basis set group =>   2
Atom  31C    basis set group =>   2
Atom  32C    basis set group =>   2
Atom  33C    basis set group =>   2
Atom  34C    basis set group =>   2
Atom  35C    basis set group =>   2
Atom  36O    basis set group =>   1
Atom  37C    basis set group =>   2
Atom  38O    basis set group =>   1
Atom  39O    basis set group =>   1
Atom  40C    basis set group =>   2
Atom  41C    basis set group =>   2
Atom  42H    basis set group =>   5
Atom  43H    basis set group =>   5
Atom  44H    basis set group =>   5
Atom  45H    basis set group =>   5
Atom  46H    basis set group =>   5
Atom  47H    basis set group =>   5
Atom  48H    basis set group =>   5
Atom  49H    basis set group =>   5
Atom  50H    basis set group =>   5
Atom  51H    basis set group =>   5
Atom  52H    basis set group =>   5
Atom  53H    basis set group =>   5
Atom  54H    basis set group =>   5
Atom  55H    basis set group =>   5
Atom  56H    basis set group =>   5
Atom  57H    basis set group =>   5
Atom  58H    basis set group =>   5
Atom  59H    basis set group =>   5
Atom  60H    basis set group =>   5
Atom  61H    basis set group =>   5
Atom  62H    basis set group =>   5
Atom  63H    basis set group =>   5
Atom  64H    basis set group =>   5
Atom  65H    basis set group =>   5
---------------------------------
AUXILIARY/J BASIS SET INFORMATION
---------------------------------
There are 5 groups of distinct atoms

 Group   1 Type O   : 12s5p4d2f1g contracted to 6s4p3d1f1g pattern {711111/2111/211/2/1}
 Group   2 Type C   : 12s5p4d2f1g contracted to 6s4p3d1f1g pattern {711111/2111/211/2/1}
 Group   3 Type S   : 14s5p5d2f1g contracted to 8s4p3d1f1g pattern {71111111/2111/311/2/1}
 Group   4 Type N   : 12s5p4d2f1g contracted to 6s4p3d1f1g pattern {711111/2111/211/2/1}
 Group   5 Type H   : 5s2p1d contracted to 3s1p1d pattern {311/2/1}

Atom   0O    basis set group =>   1
Atom   1C    basis set group =>   2
Atom   2O    basis set group =>   1
Atom   3C    basis set group =>   2
Atom   4C    basis set group =>   2
Atom   5C    basis set group =>   2
Atom   6C    basis set group =>   2
Atom   7C    basis set group =>   2
Atom   8C    basis set group =>   2
Atom   9S    basis set group =>   3
Atom  10C    basis set group =>   2
Atom  11C    basis set group =>   2
Atom  12C    basis set group =>   2
Atom  13N    basis set group =>   4
Atom  14C    basis set group =>   2
Atom  15C    basis set group =>   2
Atom  16C    basis set group =>   2
Atom  17C    basis set group =>   2
Atom  18C    basis set group =>   2
Atom  19C    basis set group =>   2
Atom  20C    basis set group =>   2
Atom  21C    basis set group =>   2
Atom  22C    basis set group =>   2
Atom  23C    basis set group =>   2
Atom  24N    basis set group =>   4
Atom  25C    basis set group =>   2
Atom  26O    basis set group =>   1
Atom  27C    basis set group =>   2
Atom  28C    basis set group =>   2
Atom  29C    basis set group =>   2
Atom  30C    basis set group =>   2
Atom  31C    basis set group =>   2
Atom  32C    basis set group =>   2
Atom  33C    basis set group =>   2
Atom  34C    basis set group =>   2
Atom  35C    basis set group =>   2
Atom  36O    basis set group =>   1
Atom  37C    basis set group =>   2
Atom  38O    basis set group =>   1
Atom  39O    basis set group =>   1
Atom  40C    basis set group =>   2
Atom  41C    basis set group =>   2
Atom  42H    basis set group =>   5
Atom  43H    basis set group =>   5
Atom  44H    basis set group =>   5
Atom  45H    basis set group =>   5
Atom  46H    basis set group =>   5
Atom  47H    basis set group =>   5
Atom  48H    basis set group =>   5
Atom  49H    basis set group =>   5
Atom  50H    basis set group =>   5
Atom  51H    basis set group =>   5
Atom  52H    basis set group =>   5
Atom  53H    basis set group =>   5
Atom  54H    basis set group =>   5
Atom  55H    basis set group =>   5
Atom  56H    basis set group =>   5
Atom  57H    basis set group =>   5
Atom  58H    basis set group =>   5
Atom  59H    basis set group =>   5
Atom  60H    basis set group =>   5
Atom  61H    basis set group =>   5
Atom  62H    basis set group =>   5
Atom  63H    basis set group =>   5
Atom  64H    basis set group =>   5
Atom  65H    basis set group =>   5
------------------------------------------------------------------------------
                             ORCA STARTUP CALCULATIONS
                           -- RI-GTO INTEGRALS CHOSEN --
------------------------------------------------------------------------------
------------------------------------------------------------------------------
                   ___                                                        
                  /   \      - P O W E R E D   B Y -                         
                 /     \                                                     
                 |  |  |   _    _      __       _____    __    __             
                 |  |  |  | |  | |    /  \     |  _  \  |  |  /  |          
                  \  \/   | |  | |   /    \    | | | |  |  | /  /          
                 / \  \   | |__| |  /  /\  \   | |_| |  |  |/  /          
                |  |  |   |  __  | /  /__\  \  |    /   |      \           
                |  |  |   | |  | | |   __   |  |    \   |  |\   \          
                \     /   | |  | | |  |  |  |  | |\  \  |  | \   \       
                 \___/    |_|  |_| |__|  |__|  |_| \__\ |__|  \__/        
                                                                              
                      - O R C A' S   B I G   F R I E N D -                    
                                      &                                       
                       - I N T E G R A L  F E E D E R -                       
                                                                              
 v1 FN, 2020, v2 2021, v3 2022-2024                                           
------------------------------------------------------------------------------


----------------------
SHARK INTEGRAL PACKAGE
----------------------

Number of atoms                             ...     66
Number of basis functions                   ...   1452
Number of shells                            ...    560
Maximum angular momentum                    ...      3
Integral batch strategy                     ... SHARK/LIBINT Hybrid
RI-J (if used) integral strategy            ... SPLIT-RIJ (Revised 2003 algorithm where possible)
Printlevel                                  ...      1
Contraction scheme used                     ... SEGMENTED contraction
Prescreening option                         ... SCHWARTZ
   Thresh                                   ... 2.500e-11
   Tcut                                     ... 2.500e-12
   Tpresel                                  ... 2.500e-12 
Coulomb Range Separation                    ... NOT USED
Exchange Range Separation                   ... NOT USED
Multipole approximations                    ... NOT USED
Finite Nucleus Model                        ... NOT USED
CABS basis                                  ... NOT available
Auxiliary Coulomb fitting basis             ... AVAILABLE
   # of basis functions in Aux-J            ...   2324
   # of shells in Aux-J                     ...    752
   Maximum angular momentum in Aux-J        ...      4
Auxiliary J/K fitting basis                 ... NOT available
Auxiliary Correlation fitting basis         ... NOT available
Auxiliary 'external' fitting basis          ... NOT available

Checking pre-screening integrals            ... done (  0.0 sec) Dimension = 560
Check shell pair data                       ... done (  0.0 sec)
Shell pair information
Shell pair cut-off parameter TPreSel        ...   2.5e-12
Total number of shell pairs                 ...    157080
Shell pairs after pre-screening             ...     84079
Total number of primitive shell pairs       ...    492546
Primitive shell pairs kept                  ...    162717
          la=0 lb=0:  20151 shell pairs
          la=1 lb=0:  24754 shell pairs
          la=1 lb=1:   7517 shell pairs
          la=2 lb=0:  11784 shell pairs
          la=2 lb=1:   7360 shell pairs
          la=2 lb=2:   1760 shell pairs
          la=3 lb=0:   5360 shell pairs
          la=3 lb=1:   3461 shell pairs
          la=3 lb=2:   1567 shell pairs
          la=3 lb=3:    365 shell pairs

Calculating one electron integrals          ... done (  0.4 sec)
Calculating RI/J V-Matrix + Cholesky decomp.... done (  0.2 sec)
Calculating Nuclear repulsion               ... done (  0.0 sec) ENN=   5024.601155105078 Eh

Diagonalization of the overlap matrix:
Smallest eigenvalue                        ... 6.448e-06
Time for diagonalization                   ...    0.376 sec
Threshold for overlap eigenvalues          ... 1.000e-07
Number of eigenvalues below threshold      ... 0
Time for construction of square roots      ...    0.104 sec
Total time needed                          ...    0.486 sec

-------------------
DFT GRID GENERATION
-------------------

General Integration Accuracy     IntAcc      ... 4.388
Radial Grid Type                 RadialGrid  ... OptM3 with GC (2021)
Angular Grid (max. ang.)         AngularGrid ... 4 (Lebedev-302)
Angular grid pruning method      GridPruning ... 4 (adaptive)
Weight generation scheme         WeightScheme... mBecke (2022)
Basis function cutoff            BFCut       ... 1.0000e-11
Integration weight cutoff        WCut        ... 1.0000e-14
Partially contracted basis set               ... off
Rotationally invariant grid construction     ... off
Angular grids for H and He will be reduced by one unit

Total number of grid points                  ...   327835
Total number of batches                      ...     5158
Average number of points per batch           ...       63
Average number of grid points per atom       ...     4967

--------------------
COSX GRID GENERATION
--------------------

GRIDX 1
-------
General Integration Accuracy     IntAcc      ... 3.816
Radial Grid Type                 RadialGrid  ... OptM3 with GC (2021)
Angular Grid (max. ang.)         AngularGrid ... 1 (Lebedev-50)
Angular grid pruning method      GridPruning ... 4 (adaptive)
Weight generation scheme         WeightScheme... mBecke (2022)
Basis function cutoff            BFCut       ... 1.0000e-11
Integration weight cutoff        WCut        ... 1.0000e-14
Partially contracted basis set               ... on
Rotationally invariant grid construction     ... off
Angular grids for H and He will be reduced by one unit

Total number of grid points                  ...    42508
Total number of batches                      ...      368
Average number of points per batch           ...      115
Average number of grid points per atom       ...      644
UseSFitting                                  ... on

GRIDX 2
-------
General Integration Accuracy     IntAcc      ... 4.020
Radial Grid Type                 RadialGrid  ... OptM3 with GC (2021)
Angular Grid (max. ang.)         AngularGrid ... 2 (Lebedev-110)
Angular grid pruning method      GridPruning ... 4 (adaptive)
Weight generation scheme         WeightScheme... mBecke (2022)
Basis function cutoff            BFCut       ... 1.0000e-11
Integration weight cutoff        WCut        ... 1.0000e-14
Partially contracted basis set               ... on
Rotationally invariant grid construction     ... off
Angular grids for H and He will be reduced by one unit

Total number of grid points                  ...    90647
Total number of batches                      ...      742
Average number of points per batch           ...      122
Average number of grid points per atom       ...     1373
UseSFitting                                  ... on

GRIDX 3
-------
General Integration Accuracy     IntAcc      ... 4.338
Radial Grid Type                 RadialGrid  ... OptM3 with GC (2021)
Angular Grid (max. ang.)         AngularGrid ... 3 (Lebedev-194)
Angular grid pruning method      GridPruning ... 4 (adaptive)
Weight generation scheme         WeightScheme... mBecke (2022)
Basis function cutoff            BFCut       ... 1.0000e-11
Integration weight cutoff        WCut        ... 1.0000e-14
Partially contracted basis set               ... on
Rotationally invariant grid construction     ... off
Angular grids for H and He will be reduced by one unit

Total number of grid points                  ...   198476
Total number of batches                      ...     1581
Average number of points per batch           ...      125
Average number of grid points per atom       ...     3007
UseSFitting                                  ... on
Initializing property integral containers    ... done (  0.0 sec)

SHARK setup successfully completed in  13.2 seconds

Maximum memory used throughout the entire STARTUP-calculation: 302.4 MB
-------------------------------------------------------------------------------
                                 ORCA GUESS
                   Start orbitals & Density for SCF / CASSCF
-------------------------------------------------------------------------------

------------
SCF SETTINGS
------------
Hamiltonian:
 Density Functional     Method          .... DFT(GTOs)
 Exchange Functional    Exchange        .... B88
   X-Alpha parameter    XAlpha          ....  0.666667
   Becke's b parameter  XBeta           ....  0.004200
 Correlation Functional Correlation     .... LYP
 LDA part of GGA corr.  LDAOpt          .... VWN-5
 Gradients option       PostSCFGGA      .... off
 Hybrid DFT is turned on
   Fraction HF Exchange ScalHFX         ....  0.200000
   Scaling of DF-GGA-X  ScalDFX         ....  0.720000
   Scaling of DF-GGA-C  ScalDFC         ....  0.810000
   Scaling of DF-LDA-C  ScalLDAC        ....  1.000000
   Perturbative correction              ....  0.000000
   NL short-range parameter             ....  4.800000
 RI-approximation to the Coulomb term is turned on
   Number of AuxJ basis functions       .... 2324
   RIJ-COSX (HFX calculated with COS-X)).... on


General Settings:
 Integral files         IntName         .... /Users/huwsandaver/2
 Hartree-Fock type      HFTyp           .... RHF
 Total Charge           Charge          ....    0
 Multiplicity           Mult            ....    1
 Number of Electrons    NEL             ....  300
 Basis Dimension        Dim             .... 1452
 Nuclear Repulsion      ENuc            ....   5024.6011551051 Eh

Convergence Acceleration:
 AO-DIIS                CNVDIIS         .... on
   Start iteration      DIISMaxIt       ....    12
   Startup error        DIISStart       ....  0.200000
   # of expansion vecs  DIISMaxEq       ....     5
   Bias factor          DIISBfac        ....   1.050
   Max. coefficient     DIISMaxC        ....  10.000
 MO-DIIS                CNVKDIIS        .... off
 Trust-Rad. Augm. Hess. CNVTRAH         .... auto
   Auto Start mean grad. ratio tolernc. ....  1.125000
   Auto Start start iteration           ....    50
   Auto Start num. interpolation iter.  ....    10
   Max. Number of Micro iterations      ....    24
   Max. Number of Macro iterations      .... Maxiter - #DIIS iter
   Number of Davidson start vectors     ....     2
   Converg. threshold    (grad. norm)   ....   1.000e-05
   Grad. Scal. Fac. for Micro threshold ....   0.100
   Minimum threshold for Micro iter.    ....   1.000e-02
   NR start threshold (gradient norm)   ....   1.000e-04
   Initial trust radius                 ....   0.400
   Minimum AH scaling param. (alpha)    ....   1.000
   Maximum AH scaling param. (alpha)    .... 1000.000
   Quad. conv. algorithm                .... NR
   White noise on init. David. guess    .... on
   Maximum white noise                  ....   0.010
   Pseudo random numbers                .... off
   Inactive MOs                         .... canonical
   Orbital update algorithm             .... Taylor
   Preconditioner                       .... Diag
   Full preconditioner red. dimension   ....   250
 SOSCF                  CNVSOSCF        .... on
   Start iteration      SOSCFMaxIt      ....   150
   Startup grad/error   SOSCFStart      ....  0.003300
   Hessian update       SOSCFHessUp     .... L-BFGS
 Level Shifting         CNVShift        .... on
   Level shift para.    LevelShift      ....    0.2500
   Turn off err/grad.   ShiftErr        ....    0.0010
 Zerner damping         CNVZerner       .... off
 Static damping         CNVDamp         .... on
   Fraction old density DampFac         ....    0.7000
   Max. Damping (<1)    DampMax         ....    0.9800
   Min. Damping (>=0)   DampMin         ....    0.0000
   Turn off err/grad.   DampErr         ....    0.1000

SCF Procedure:
 Maximum # iterations   MaxIter         ....   125
 SCF integral mode      SCFMode         .... Direct
   Integral package                     .... SHARK and LIBINT hybrid scheme
 Reset frequency        DirectResetFreq ....    20
 Integral Threshold     Thresh          ....  2.500e-11 Eh
 Primitive CutOff       TCut            ....  2.500e-12 Eh

Convergence Tolerance:
 Convergence Check Mode ConvCheckMode   .... Total+1el-Energy
 Convergence forced     ConvForced      .... 1
 Energy Change          TolE            ....  1.000e-08 Eh
 1-El. energy change                    ....  1.000e-05 Eh
 Orbital Gradient       TolG            ....  1.000e-05
 Orbital Rotation angle TolX            ....  1.000e-05
 DIIS Error             TolErr          ....  5.000e-07

------------------------------
INITIAL GUESS: MODEL POTENTIAL
------------------------------
Loading Hartree-Fock densities                     ... done
Calculating cut-offs                               ... done
Initializing the effective Hamiltonian             ... done
Setting up the integral package (SHARK)            ... done
Starting the Coulomb interaction                   ... done (   6.6 sec)
Making the grid                                    ... done (   1.4 sec)
Mapping shells                                     ... done
Starting the XC term evaluation                    ... done (   3.2 sec)
[...]

Property integrals calculated in   0.6 sec

Maximum memory used throughout the entire PROPINT-calculation: 305.3 MB
------------------------------------------------------------------------------
                        ORCA TD-DFT/TDA CALCULATION
------------------------------------------------------------------------------

Input orbitals are from        ... /Users/huwsandaver/2.gbw
CI-vector output               ... /Users/huwsandaver/2.cis
Solver                         ... FN-2001
Tamm-Dancoff approximation     ... operative
CIS-Integral strategy          ... AO-integrals
Integral handling              ... AO integral Direct
Max. core memory used          ... 512 MB
Reference state                ... RHF
Generation of triplets         ... off
Follow IRoot                   ... off
Number of operators            ... 1
Orbital ranges used for CIS calculation:
 Operator 0:  Orbitals  46...149  to 150...1451
XAS localization array:
 Operator 0:  Orbitals  -1... -1

-------------------
XC-INTEGRATION GRID
-------------------

General Integration Accuracy     IntAcc      ... 3.467
Radial Grid Type                 RadialGrid  ... OptM3 with GC (2021)
Angular Grid (max. ang.)         AngularGrid ... 1 (Lebedev-50)
Angular grid pruning method      GridPruning ... 4 (adaptive)
Weight generation scheme         WeightScheme... mBecke (2022)
Basis function cutoff            BFCut       ... 1.0000e-11
Integration weight cutoff        WCut        ... 1.0000e-14
Partially contracted basis set               ... off
Rotationally invariant grid construction     ... off
Angular grids for H and He will be reduced by one unit

Total number of grid points                  ...    48970
Total number of batches                      ...      797
Average number of points per batch           ...       61
Average number of grid points per atom       ...      742

---------------------
COSX-INTEGRATION GRID
---------------------

General Integration Accuracy     IntAcc      ... 3.067
Radial Grid Type                 RadialGrid  ... OptM3 with GC (2021)
Angular Grid (max. ang.)         AngularGrid ... 1 (Lebedev-50)
Angular grid pruning method      GridPruning ... 4 (adaptive)
Weight generation scheme         WeightScheme... mBecke (2022)
Basis function cutoff            BFCut       ... 1.0000e-11
Integration weight cutoff        WCut        ... 1.0000e-14
Partially contracted basis set               ... on
Rotationally invariant grid construction     ... off
Angular grids for H and He will be reduced by one unit

Total number of grid points                  ...    23005
Total number of batches                      ...      216
Average number of points per batch           ...      106
Average number of grid points per atom       ...      349

---------------
TD-DFT XC SETUP
---------------

DFT calculation                         ... on
Name of the grid file                   ... /Users/huwsandaver/2.grid_cis.tmp
RI-approximation                        ... on
Aux-basis dimension                     ... 0
Exchange functional (TD-DFT)            ... B88
   X-Alpha parameter    XAlpha (TD-DFT) ...  0.666667
   Becke's b parameter  XBeta (TD-DFT)  ...  0.004200
Correlation functional (TD-DFT)         ... LYP
 LDA part of GGA corr.  LDAOpt (TD-DFT) ... VWN-5
Hybrid DFT                              ... on
   Exchange mixing (TD-DFT)             ...  0.200
   GGA exch. scaling (TD-DFT)           ...  0.720
   GGA corr. scaling (TD-DFT)           ...  0.810

Building densities             ... done
Calculating rho(r) on the grid ... done
Building xc-kernel on the grid ... done
                    *** TD-DFT CALCULATION INITIALIZED ***

-----------------------------
    LR-CPCM (equilibrium)
-----------------------------

Setting up LR-CPCM             ... done

------------------------
DAVIDSON-DIAGONALIZATION
------------------------

Dimension of the eigenvalue problem            ... 135408
Number of roots to be determined               ...     10
Maximum size of the expansion space            ...    500
Maximum number of iterations                   ...    100
Convergence tolerance for the residual         ...    2.500e-07
Convergence tolerance for the energies         ...    2.500e-07
Orthogonality tolerance                        ...    1.000e-14
Level Shift                                    ...    0.000e+00
Constructing the preconditioner                ... o.k.
Building the initial guess                     ... o.k.
Number of trial vectors determined             ...    500


                       ****Iteration    0****
   Time for iteration     :  TOTAL=1127.5 TRAFO=0.5 RIJ=146.8 COSX=496.1 XC=58.5
   Size of expansion space: 30
   Lowest Energy          :     0.069067746841
   Maximum Energy change  :     0.131506777078 (vector 9)
   Maximum residual norm  :     0.005469807107

                       ****Iteration    1****
   Time for iteration     :  TOTAL=489.1 TRAFO=0.2 RIJ=62.0 COSX=217.7 XC=21.6
   Size of expansion space: 40
   Lowest Energy          :     0.066013850421
   Maximum Energy change  :     0.005637097165 (vector 9)
   Maximum residual norm  :     0.000821976068

                       ****Iteration    2****
   Time for iteration     :  TOTAL=491.8 TRAFO=0.2 RIJ=62.4 COSX=218.9 XC=21.7
   Size of expansion space: 50
   Lowest Energy          :     0.065911774893
   Maximum Energy change  :     0.001713184842 (vector 9)
   Maximum residual norm  :     0.000146519285

                       ****Iteration    3****
   Time for iteration     :  TOTAL=496.5 TRAFO=0.2 RIJ=62.6 COSX=221.3 XC=22.0
   Size of expansion space: 60
   Lowest Energy          :     0.065902003328
   Maximum Energy change  :     0.000308162080 (vector 8)
   Maximum residual norm  :     0.000037438557

                       ****Iteration    4****
   Time for iteration     :  TOTAL=499.0 TRAFO=0.2 RIJ=63.2 COSX=222.8 XC=22.3
   Size of expansion space: 70
   Lowest Energy          :     0.065901541659
   Maximum Energy change  :     0.000065695341 (vector 8)
   Maximum residual norm  :     0.000003232088

                       ****Iteration    5****
   Time for iteration     :  TOTAL=500.0 TRAFO=0.2 RIJ=63.5 COSX=223.2 XC=22.4
   Size of expansion space: 80
   Lowest Energy          :     0.065901509994
   Maximum Energy change  :     0.000005523068 (vector 8)
   Maximum residual norm  :     0.000000470743

                       ****Iteration    6****
   Time for iteration     :  TOTAL=501.8 TRAFO=0.2 RIJ=64.2 COSX=222.6 XC=22.5
   Size of expansion space: 90
   Lowest Energy          :     0.065901508521
   Maximum Energy change  :     0.000000594520 (vector 8)
   Maximum residual norm  :     0.000000040761

      *** CONVERGENCE OF RESIDUAL NORM REACHED ***

Storing the converged CI vectors               ... /Users/huwsandaver/2.cis1

                 *** DAVIDSON DONE ***

Total time for solving the CIS problem:  4114.013sec

------------------------------------
TD-DFT/TDA EXCITED STATES (SINGLETS)
------------------------------------

the weight of the individual excitations are printed if larger than 1.0e-02

STATE  1:  E=   0.065902 au      1.793 eV    14463.7 cm**-1 <S**2> =   0.000000 Mult 1
   149a -> 150a  :     0.983648 (c=  0.99179030)

STATE  2:  E=   0.092820 au      2.526 eV    20371.6 cm**-1 <S**2> =   0.000000 Mult 1
   148a -> 150a  :     0.053736 (c=  0.23180970)
   149a -> 151a  :     0.921654 (c= -0.96002810)

STATE  3:  E=   0.093349 au      2.540 eV    20487.7 cm**-1 <S**2> =   0.000000 Mult 1
   148a -> 150a  :     0.902903 (c= -0.95021186)
   149a -> 151a  :     0.058456 (c= -0.24177623)

STATE  4:  E=   0.108888 au      2.963 eV    23898.1 cm**-1 <S**2> =   0.000000 Mult 1
   141a -> 150a  :     0.036676 (c=  0.19151023)
   144a -> 150a  :     0.017614 (c=  0.13271673)
   146a -> 150a  :     0.032487 (c= -0.18024281)
   147a -> 150a  :     0.816791 (c= -0.90376498)
   149a -> 152a  :     0.032643 (c= -0.18067296)

STATE  5:  E=   0.109395 au      2.977 eV    24009.5 cm**-1 <S**2> =   0.000000 Mult 1
   143a -> 150a  :     0.013251 (c= -0.11511159)
   146a -> 150a  :     0.880269 (c= -0.93822653)
   147a -> 150a  :     0.048329 (c=  0.21983963)

STATE  6:  E=   0.114720 au      3.122 eV    25178.2 cm**-1 <S**2> =   0.000000 Mult 1
   147a -> 150a  :     0.033795 (c=  0.18383478)
   149a -> 152a  :     0.909443 (c= -0.95364701)
   149a -> 153a  :     0.025608 (c= -0.16002373)

STATE  7:  E=   0.117090 au      3.186 eV    25698.3 cm**-1 <S**2> =   0.000000 Mult 1
   141a -> 150a  :     0.021517 (c=  0.14668764)
   143a -> 150a  :     0.172016 (c= -0.41474824)
   144a -> 150a  :     0.307558 (c=  0.55457954)
   144a -> 151a  :     0.020451 (c=  0.14300808)
   146a -> 150a  :     0.026159 (c=  0.16173895)
   147a -> 150a  :     0.014146 (c=  0.11893722)
   148a -> 151a  :     0.371945 (c=  0.60987271)

STATE  8:  E=   0.121298 au      3.301 eV    26621.9 cm**-1 <S**2> =   0.000000 Mult 1
   143a -> 150a  :     0.014189 (c= -0.11911575)
   149a -> 152a  :     0.033056 (c=  0.18181241)
   149a -> 153a  :     0.890272 (c= -0.94354200)

STATE  9:  E=   0.123615 au      3.364 eV    27130.4 cm**-1 <S**2> =   0.000000 Mult 1
   138a -> 150a  :     0.011581 (c=  0.10761421)
   141a -> 150a  :     0.011099 (c=  0.10535022)
   142a -> 150a  :     0.021731 (c= -0.14741382)
   143a -> 150a  :     0.161893 (c= -0.40235914)
   144a -> 150a  :     0.157552 (c=  0.39692825)
   146a -> 150a  :     0.010850 (c=  0.10416432)
   147a -> 151a  :     0.027853 (c= -0.16689146)
   148a -> 151a  :     0.516144 (c= -0.71843153)
   149a -> 153a  :     0.011684 (c=  0.10809386)

STATE 10:  E=   0.124151 au      3.378 eV    27247.9 cm**-1 <S**2> =   0.000000 Mult 1
   145a -> 150a  :     0.961162 (c= -0.98038850)


-----------------------------
TD-DFT/TDA-EXCITATION SPECTRA
-----------------------------

Center of mass = (  6.1606, -2.1350, -4.3287)
Generating CIS transition densities           ... done

----------------------------------------------------------------------------------------------------
                     ABSORPTION SPECTRUM VIA TRANSITION ELECTRIC DIPOLE MOMENTS    
----------------------------------------------------------------------------------------------------
     Transition      Energy     Energy  Wavelength fosc(D2)      D2        DX        DY        DZ   
                      (eV)      (cm-1)    (nm)                 (au**2)    (au)      (au)      (au)  
----------------------------------------------------------------------------------------------------
  0-1A  ->  1-1A    1.793271   14463.7   691.4   0.019854949   0.45192  -0.43083   0.51463   0.03826
  0-1A  ->  2-1A    2.525758   20371.6   490.9   0.030900432   0.49936   0.60762  -0.24650   0.26344
  0-1A  ->  3-1A    2.540151   20487.7   488.1   0.018218751   0.29275   0.11981  -0.12661   0.51222
  0-1A  ->  4-1A    2.962989   23898.1   418.4   0.120850384   1.66479   1.19097   0.46845   0.16413
  0-1A  ->  5-1A    2.976800   24009.5   416.5   0.023940664   0.32827  -0.01142   0.53817   0.19624
  0-1A  ->  6-1A    3.121694   25178.2   397.2   0.104419199   1.36531  -0.85867   0.71036  -0.35127
  0-1A  ->  7-1A    3.186178   25698.3   389.1   0.061061518   0.78224  -0.43265  -0.61550  -0.46498
  0-1A  ->  8-1A    3.300700   26621.9   375.6   0.173105437   2.14065  -1.02124   0.89999  -0.53642
  0-1A  ->  9-1A    3.363736   27130.4   368.6   0.295015515   3.57985  -0.03157   1.63824   0.94606
  0-1A  -> 10-1A    3.378310   27247.9   367.0   0.008669014   0.10474  -0.16586   0.26419  -0.08623

----------------------------------------------------------------------------------------------------
                     ABSORPTION SPECTRUM VIA TRANSITION VELOCITY DIPOLE MOMENTS    
----------------------------------------------------------------------------------------------------
     Transition      Energy     Energy  Wavelength fosc(P2)      P2        PX        PY        PZ   
                      (eV)      (cm-1)    (nm)                 (au**2)    (au)      (au)      (au)  
----------------------------------------------------------------------------------------------------
  0-1A  ->  1-1A    1.793271   14463.7   691.4   0.003546217   0.00035   0.01826  -0.00400   0.00109
  0-1A  ->  2-1A    2.525758   20371.6   490.9   0.047131607   0.00656  -0.05074   0.05590  -0.02939
  0-1A  ->  3-1A    2.540151   20487.7   488.1   0.003971345   0.00056  -0.01438  -0.00196   0.01859
  0-1A  ->  4-1A    2.962989   23898.1   418.4   0.050885684   0.00831  -0.07113  -0.04989  -0.02761
  0-1A  ->  5-1A    2.976800   24009.5   416.5   0.022802431   0.00374   0.00779  -0.05127  -0.03245
  0-1A  ->  6-1A    3.121694   25178.2   397.2   0.059363064   0.01022   0.07981  -0.06027   0.01458
  0-1A  ->  7-1A    3.186178   25698.3   389.1   0.019812728   0.00348   0.02147   0.04990   0.02300
  0-1A  ->  8-1A    3.300700   26621.9   375.6   0.119329471   0.02171   0.10636  -0.09529   0.03630
  0-1A  ->  9-1A    3.363736   27130.4   368.6   0.130511958   0.02420  -0.01672  -0.14981  -0.03843
  0-1A  -> 10-1A    3.378310   27247.9   367.0   0.007550970   0.00141   0.02071  -0.03107   0.00344

------------------------------------------------------------------------------------------
                     CD SPECTRUM VIA TRANSITION ELECTRIC DIPOLE MOMENTS    
------------------------------------------------------------------------------------------
     Transition      Energy     Energy  Wavelength    R        MX        MY        MZ   
                      (eV)      (cm-1)    (nm)   (1e40*cgs)   (au)      (au)      (au)  
------------------------------------------------------------------------------------------
  0-1A  ->  1-1A    1.793271   14463.7   691.4   19.57233  -0.02791  -0.12094   0.22740
  0-1A  ->  2-1A    2.525758   20371.6   490.9   13.20161  -0.04712  -0.13616  -0.12502
  0-1A  ->  3-1A    2.540151   20487.7   488.1  -27.89765  -0.01495  -0.05104   0.10640
  0-1A  ->  4-1A    2.962989   23898.1   418.4  -58.77850   0.13043   0.08362  -0.42545
  0-1A  ->  5-1A    2.976800   24009.5   416.5    1.67327  -0.10182  -0.07447   0.18022
  0-1A  ->  6-1A    3.121694   25178.2   397.2    6.47586   0.02168   0.06467   0.11689
  0-1A  ->  7-1A    3.186178   25698.3   389.1  -28.65903  -0.12045   0.02605  -0.05314
  0-1A  ->  8-1A    3.300700   26621.9   375.6  -19.05434  -0.01363   0.14814   0.19915
  0-1A  ->  9-1A    3.363736   27130.4   368.6  -17.32009  -0.01296  -0.04554   0.11726
  0-1A  -> 10-1A    3.378310   27247.9   367.0   -6.73921   0.01101   0.04355  -0.05352

------------------------------------------------------------------------------------------
                     CD SPECTRUM VIA TRANSITION VELOCITY DIPOLE MOMENTS    
------------------------------------------------------------------------------------------
     Transition      Energy     Energy  Wavelength    R        MX        MY        MZ   
                      (eV)      (cm-1)    (nm)   (1e40*cgs)   (au)      (au)      (au)  
------------------------------------------------------------------------------------------
  0-1A  ->  1-1A    1.793271   14463.7   691.4    1.57852  -0.02791  -0.12094   0.22740
  0-1A  ->  2-1A    2.525758   20371.6   490.9   -7.85325  -0.04712  -0.13616  -0.12502
  0-1A  ->  3-1A    2.540151   20487.7   488.1   11.57763  -0.01495  -0.05104   0.10640
  0-1A  ->  4-1A    2.962989   23898.1   418.4   -7.37302   0.13043   0.08362  -0.42545
  0-1A  ->  5-1A    2.976800   24009.5   416.5  -12.16455  -0.10182  -0.07447   0.18022
  0-1A  ->  6-1A    3.121694   25178.2   397.2   -1.90153   0.02168   0.06467   0.11689
  0-1A  ->  7-1A    3.186178   25698.3   389.1  -10.10272  -0.12045   0.02605  -0.05314
  0-1A  ->  8-1A    3.300700   26621.9   375.6  -32.40391  -0.01363   0.14814   0.19915
  0-1A  ->  9-1A    3.363736   27130.4   368.6    9.66215  -0.01296  -0.04554   0.11726
  0-1A  -> 10-1A    3.378310   27247.9   367.0   -4.97150   0.01101   0.04355  -0.05352

Total run time:     4117.013 sec

           *** ORCA-CIS/TD-DFT FINISHED WITHOUT ERROR ***
-----------------------
CIS/TD-DFT TOTAL ENERGY
-----------------------

    E(SCF)  =  -2230.455985275 Eh
    DE(CIS) =      0.065901509 Eh (Root  1)
    ----------------------------- ---------
    E(tot)  =  -2230.390083767 Eh


------------------------
TD-DFT GRADIENT XC SETUP
------------------------

Building densities                     ... done
Calculating rho(r) on the grid         ... done
Building xc-kernel on the grid         ... done
Building xc 3rd derivative on the grid ... done
                *** TD-DFT GRADIENT CALCULATION INITIALIZED ***

--------------------------
TD-DFT/TDA RELAXED DENSITY
--------------------------

Reference wavefunction             ... RHF
State of interest                  ... 1
Basis dimension                    ... 1452
DFT-XC contribution needed         ... YES
RI-approximation                   ... YES
Do Coulomb                         ... YES
Do Exchange                        ... YES
Need Hartree-Fock Exchange         ... YES
facj, facx                         ...  2.000, -0.200
Conventional                       ... NO
Range separation                   ... NO
Triplet state                      ... NO
Spin Flip                          ... NO
CIS-vectors being read from        ... /Users/huwsandaver/2.cis
 => Number of Vectors found: 10
 => Orbital Window: 46...149 -> 150...1451

Reading the CIS file                     ... done
Norm of the CI vector                    ... 1.000000000
Reading the CPCM file                    ... done
Making the CIS (pseudo)densities         ... done
Making operators G(D) and Q(T)           ... (SHARK-ok)done
Transforming the Fock operators          ... done
Making the frozen-core relaxed density   ... done
Constructing the G(H) operator           ... (SHARK-ok)done
Transforming the G(H) operator           ... done
Calculating the CIS Lagrangian           ... done
Solving the Z-vector equations           ... 

Using XC Grid                  ... (/Users/huwsandaver/2.grid_cpscf.tmp) 
Recalculating density on grid  ... (/Users/huwsandaver/2.grho_cpscf0.tmp) done
Calculating the xc-kernel      ... (/Users/huwsandaver/2.fxc_cpscf0.tmp) done

-------------------
SHARK CP-SCF DRIVER
-------------------

Dimension of the orbital basis          ...   1452
Dimension of the CPSCF-problem          ... 195300
Number of operators                     ...      1
Max. number of iterations               ...    128
Convergence Tolerance                   ... 1.0e-04
Number of perturbations                 ...      1
Perturbation type                       ... REAL

----------------------------
POPLE LINEAR EQUATION SOLVER
----------------------------

  ITERATION   0:   ||err||_max =   2.0410e+00 (  97.7 sec)
  ITERATION   1:   ||err||_max =   9.6706e-02 (  96.8 sec)
  ITERATION   2:   ||err||_max =   4.8611e-02 (  97.7 sec)
  ITERATION   3:   ||err||_max =   1.4068e-02 (  97.8 sec)
  ITERATION   4:   ||err||_max =   5.3818e-03 (  98.7 sec)
  ITERATION   5:   ||err||_max =   1.8881e-03 (  98.3 sec)
  ITERATION   6:   ||err||_max =   8.3467e-04 (  98.4 sec)
  ITERATION   7:   ||err||_max =   3.1168e-04 (  97.8 sec)
  ITERATION   8:   ||err||_max =   1.1931e-04 (  99.1 sec)
  ITERATION   9:   ||err||_max =   3.8155e-05 (  99.3 sec)

Finalizing the relaxed density           ... done
Storing the relaxed density              ... done
Constructing the G(Z) operator           ... (SHARK-ok)done
Adding the CPCM contribution             ... done
Adding the XC terms                      ... done
Transforming the G(Z) operator           ... done
Making the W-matrix                      ... done
Finalizing the W-matrix                  ... done
Transforming the W-matrix                ... done
Nuc. rep. gradient        (SHARK) ... done (  0.0 sec)
HCore & Overlap gradient  (SHARK) ... done (  8.3 sec)
Split-RIJ-J gradient      (SHARK) ... done ( 60.4 sec)
COSX-gradient                     ... 